M 0.0 nn 5 x 500 y 200 rp AODV
M 0.0 sc scen-14-test1 cp cbr-14-test1 seed 0.0
M 0.0 prop Propagation/TwoRayGround ant Antenna/OmniAntenna
s 2.556838879 _1_ AGT  --- 0 cbr 512 [0 0 0 0] ------- [1:0 2:0 32 0] [0] 0 16777215
r 2.556838879 _1_ RTR  --- 0 cbr 512 [0 0 0 0] ------- [1:0 2:0 32 0] [0] 0 16777215
D 2.556838879 _1_ RTR LOOP 0 cbr 512 [0 0 0 0] ------- [1:0 2:0 32 0] [0] 0 16777215
s 2.556838879 _1_ RTR  --- -1 udp 148 [0 0 0 0] ------- [1:255 -1:-1 32 0] 
s 2.556953879 _1_ MAC  --- -1 udp 206 [0 ffffffff 1 800] ------- [1:255 -1:-1 32 0] 
s 4.558197188 _1_ AGT  --- 2 cbr 512 [0 0 0 0] ------- [1:0 2:0 32 0] [1] 0 16777215
r 4.558197188 _1_ RTR  --- 2 cbr 512 [0 0 0 0] ------- [1:0 2:0 32 0] [1] 0 16777215
D 4.558197188 _1_ RTR LOOP 2 cbr 512 [0 0 0 0] ------- [1:0 2:0 32 0] [1] 0 16777215
s 4.558197188 _1_ RTR  --- -1 udp 148 [0 0 0 0] ------- [1:255 -1:-1 32 0] 
s 4.558592188 _1_ MAC  --- -1 udp 206 [0 ffffffff 1 800] ------- [1:255 -1:-1 32 0] 
s 6.910687873 _1_ AGT  --- 4 cbr 512 [0 0 0 0] ------- [1:0 2:0 32 0] [2] 0 16777215
r 6.910687873 _1_ RTR  --- 4 cbr 512 [0 0 0 0] ------- [1:0 2:0 32 0] [2] 0 16777215
D 6.910687873 _1_ RTR LOOP 4 cbr 512 [0 0 0 0] ------- [1:0 2:0 32 0] [2] 0 16777215
s 6.910687873 _1_ RTR  --- -1 udp 148 [0 0 0 0] ------- [1:255 -1:-1 32 0] 
s 6.910962873 _1_ MAC  --- -1 udp 206 [0 ffffffff 1 800] ------- [1:255 -1:-1 32 0] 
s 10.162534959 _1_ AGT  --- 6 cbr 512 [0 0 0 0] ------- [1:0 2:0 32 0] [3] 0 16777215
r 10.162534959 _1_ RTR  --- 6 cbr 512 [0 0 0 0] ------- [1:0 2:0 32 0] [3] 0 16777215
D 10.162534959 _1_ RTR LOOP 6 cbr 512 [0 0 0 0] ------- [1:0 2:0 32 0] [3] 0 16777215
s 10.162534959 _1_ RTR  --- -1 udp 148 [0 0 0 0] ------- [1:255 -1:-1 32 0] 
s 10.162869959 _1_ MAC  --- -1 udp 206 [0 ffffffff 1 800] ------- [1:255 -1:-1 32 0] 
s 14.717995532 _1_ AGT  --- 8 cbr 512 [0 0 0 0] ------- [1:0 2:0 32 0] [4] 0 16777215
r 14.717995532 _1_ RTR  --- 8 cbr 512 [0 0 0 0] ------- [1:0 2:0 32 0] [4] 0 16777215
D 14.717995532 _1_ RTR LOOP 8 cbr 512 [0 0 0 0] ------- [1:0 2:0 32 0] [4] 0 16777215
s 14.717995532 _1_ RTR  --- -1 udp 148 [0 0 0 0] ------- [1:255 -1:-1 32 0] 
s 14.718610532 _1_ MAC  --- -1 udp 206 [0 ffffffff 1 800] ------- [1:255 -1:-1 32 0] 
s 17.374577159 _1_ AGT  --- 10 cbr 512 [0 0 0 0] ------- [1:0 2:0 32 0] [5] 0 16777215
r 17.374577159 _1_ RTR  --- 10 cbr 512 [0 0 0 0] ------- [1:0 2:0 32 0] [5] 0 16777215
D 17.374577159 _1_ RTR LOOP 10 cbr 512 [0 0 0 0] ------- [1:0 2:0 32 0] [5] 0 16777215
s 17.374577159 _1_ RTR  --- -1 udp 148 [0 0 0 0] ------- [1:255 -1:-1 32 0] 
s 17.374892159 _1_ MAC  --- -1 udp 206 [0 ffffffff 1 800] ------- [1:255 -1:-1 32 0] 
s 19.829810153 _1_ AGT  --- 12 cbr 512 [0 0 0 0] ------- [1:0 2:0 32 0] [6] 0 16777215
r 19.829810153 _1_ RTR  --- 12 cbr 512 [0 0 0 0] ------- [1:0 2:0 32 0] [6] 0 16777215
D 19.829810153 _1_ RTR LOOP 12 cbr 512 [0 0 0 0] ------- [1:0 2:0 32 0] [6] 0 16777215
s 19.829810153 _1_ RTR  --- -1 udp 148 [0 0 0 0] ------- [1:255 -1:-1 32 0] 
s 19.830225153 _1_ MAC  --- -1 udp 206 [0 ffffffff 1 800] ------- [1:255 -1:-1 32 0] 
